LAMMPS (7 Aug 2019)
units metal
atom_style atomic
dimension 3

lattice fcc 4.09
Lattice spacing in x,y,z = 4.09 4.09 4.09
boundary p p s

region whole block 0 80 0 80 0 90
create_box 1 whole # created with 1 type of atom in it
Created orthogonal box = (0 0 0) to (327.2 327.2 368.1)
  1 by 1 by 1 MPI processor grid

region top block 0 80 0 80 0 10
region bottom block 0 80 0 80 80 90

create_atoms 1 region top
Created 268800 atoms
  create_atoms CPU = 0.068487 secs
create_atoms 1 region bottom
Created 268800 atoms
  create_atoms CPU = 0.132948 secs

mass 1 107.87


reset_timestep 0

include pot.mod
pair_style      eam/alloy
pair_coeff      * * ./Ag.eam.alloy Ag

neighbor 	    2.0 bin
neigh_modify 	every 1 check yes
# neigh_modify delay 0 every 1 check yes page 500000 one 50000
timestep 	 	1



# outputs
thermo          100
thermo_style    custom step temp
thermo_modify lost ignore

# energy minimization
minimize        1.0e-10 1.0e-10 100000 100000
WARNING: Using 'neigh_modify every 1 delay 0 check yes' setting during minimization (src/min.cpp:168)
Neighbor list info ...
  update every 1 steps, delay 0 steps, check yes
  max neighbors/atom: 2000, page size: 100000
  master list distance cutoff = 7.99501
  ghost atom cutoff = 7.99501
  binsize = 3.99751, bins = 82 82 93
  1 neighbor lists, perpetual/occasional/extra = 1 0 0
  (1) pair eam/alloy, perpetual
      attributes: half, newton on
      pair build: half/bin/atomonly/newton
      stencil: half/bin/3d/newton
      bin: standard
Per MPI rank memory allocation (min/avg/max) = 282.4 | 282.4 | 282.4 Mbytes
Step Temp 
       0            0 
      18            0 
Loop time of 113.754 on 1 procs for 18 steps with 537600 atoms

99.9% CPU use with 1 MPI tasks x no OpenMP threads

Minimization stats:
  Stopping criterion = energy tolerance
  Energy initial, next-to-last, final = 
        -1506854.08996     -1507023.69238     -1507023.69238
  Force two-norm initial, final = 40.9393 0.0116982
  Force max component initial, final = 0.138942 2.95961e-05
  Final line search alpha, max atom move = 0.5 1.4798e-05
  Iterations, force evaluations = 18 37

MPI task timing breakdown:
Section |  min time  |  avg time  |  max time  |%varavg| %total
---------------------------------------------------------------
Pair    | 111.57     | 111.57     | 111.57     |   0.0 | 98.08
Neigh   | 0          | 0          | 0          |   0.0 |  0.00
Comm    | 0.095421   | 0.095421   | 0.095421   |   0.0 |  0.08
Output  | 0          | 0          | 0          |   0.0 |  0.00
Modify  | 0          | 0          | 0          |   0.0 |  0.00
Other   |            | 2.089      |            |       |  1.84

Nlocal:    537600 ave 537600 max 537600 min
Histogram: 1 0 0 0 0 0 0 0 0 0
Nghost:    48070 ave 48070 max 48070 min
Histogram: 1 0 0 0 0 0 0 0 0 0
Neighs:    3.3408e+07 ave 3.3408e+07 max 3.3408e+07 min
Histogram: 1 0 0 0 0 0 0 0 0 0

Total # of neighbors = 33408000
Ave neighs/atom = 62.1429
Neighbor list builds = 0
Dangerous builds = 0

fix 1 all nvt temp 800 800 100
run 2000000
Per MPI rank memory allocation (min/avg/max) = 241.9 | 241.9 | 241.9 Mbytes
Step Temp 
      18            0 
     100 0.0050328818 
     200 5.3330259e-05 
     300 3.0587853e-05 
     400 8.6030819e-06 
     500 1.164018e-05 
     600 1.3038099e-07 
     700 5.0070909e-06 
     800 2.1621672e-16 
     900 3.2892515e-11 
    1000 2.4066188e-14 
    1100 7.4607801e-19 
    1200 8.3652248e-18 
    1300 2.1034135e-13 
    1400 2.1757126e-20 
    1500 2.9132686e-19 
    1600 4.7580451e-20 
    1700 8.6250318e-14 
    1800 1.3683986e-18 
    1900 2.0072941e-21 
    2000 1.0661615e-18 
    2100 3.7191042e-20 
    2200 1.1545594e-16 
    2300 1.7380175e-20 
    2400 3.139381e-10 
    2500 1.4615268e-20 
    2600 4.789393e-15 
    2700 2.796729e-07 
    2800 9.331098e-19 
    2900 1.3963636e-19 
    3000  8.85736e-23 
    3100 2.2428725e-22 
    3200 1.1692134e-21 
    3300 3.1158472e-18 
    3400 1.5584783e-20 
    3500 1.9760191e-17 
    3600 3.7311908e-22 
    3700 5.582953e-21 
    3800 5.2233812e-12 
    3900 1.8745682e-19 
    4000 2.7217589e-21 
    4100 5.1832042e-10 
    4200 1.7416782e-21 
    4300 1.6555451e-21 
    4400 8.0682458e-15 
    4500 1.5107167e-15 
    4600 1.1454944e-22 
    4700 3.6838242e-22 
    4800 3.8516749e-21 
    4900 4.3042001e-21 
    5000 4.0142576e-21 
    5100    1.521e-22 
    5200 5.1409658e-22 
    5300 5.2515852e-21 
    5400 5.1688683e-22 
    5500 6.2066957e-21 
    5600 3.1758924e-23 
    5700 6.7960269e-23 
    5800 1.9820866e-22 
    5900 1.2312354e-21 
    6000 1.6187535e-18 
    6100 8.4360074e-21 
    6200 1.0961904e-23 
    6300 1.7777578e-23 
    6400 3.1764114e-23 
    6500 6.5948275e-23 
    6600 1.7742833e-22 
    6700 8.3887518e-22 
    6800 4.5872758e-20 
    6900 1.3255645e-19 
    7000 3.4983879e-24 
    7100 4.8674311e-24 
    7200 7.1383466e-24 
    7300 1.120559e-23 
    7400 1.9290551e-23 
    7500 3.8004899e-23 
    7600 9.4409271e-23 
    7700 3.6638171e-22 
    7800 5.0467574e-21 
    7900  1.79751e-23 
    8000 3.5656007e-23 
    8100 8.8481561e-23 
    8200 3.3318449e-22 
    8300 3.8822489e-21 
    8400 3.418045e-24 
    8500 4.7359674e-24 
    8600 6.8704493e-24 
    8700 1.0600585e-23 
    8800  1.77561e-23 
    8900 3.3238832e-23 
    9000 7.5294343e-23 
    9100 2.388942e-22 
    9200 1.6893214e-21 
    9300 4.7106404e-18 
    9400 3.4029339e-23 
    9500 8.1315579e-23 
    9600 2.7659819e-22 
    9700 2.2490079e-21 
    9800 1.1049885e-13 
    9900 2.6960866e-25 
   10000 3.0928599e-25 
   10100 3.562298e-25 
   10200 4.1208373e-25 
   10300 4.7963399e-25 
   10400   5.6463e-25 
   10500 6.7322794e-25 
   10600 8.1414419e-25 
   10700 1.0001617e-24 
   10800 1.2478089e-24 
   10900 1.5873677e-24 
   11000 2.0672028e-24 
   11100 2.7662549e-24 
   11200 3.8116307e-24 
   11300 5.4325992e-24 
   11400 8.1575715e-24 
   11500 1.3101075e-23 
   11600 2.2993951e-23 
   11700 4.5571295e-23 
   11800 1.1113469e-22 
   11900 3.9454609e-22 
   12000 3.6646342e-21 
   12100 3.0696914e-25 
   12200 3.4626605e-25 
   12300 3.9168403e-25 
   12400 4.4437199e-25 
   12500 5.0573576e-25 
   12600 5.7750593e-25 
   12700 6.6189707e-25 
   12800 7.6227222e-25 
   12900 8.8180646e-25 
   13000 1.028484e-24 
   13100 1.2112436e-24 
   13200 1.4420517e-24 
   13300 1.7380653e-24 
   13400 2.1224524e-24 
   13500 2.6325127e-24 
   13600 3.3325813e-24 
   13700 4.3230606e-24 
   13800 5.7645198e-24 
   13900 7.9291868e-24 
   14000 1.1413504e-23 
   14100 1.7479285e-23 
   14200 2.9086432e-23 
   14300 5.4121742e-23 
   14400 1.2166495e-22 
   14500 3.7946692e-22 
   14600 2.5305319e-21 
   14700 1.8504163e-18 
   14800 2.6209329e-23 
   14900 4.7705655e-23 
   15000 1.0241009e-22 
   15100  2.90602e-22 
   15200 1.4953264e-21 
   15300 7.6972508e-20 
   15400 1.7091915e-23 
   15500 2.934889e-23 
   15600 5.6186183e-23 
   15700 1.2928977e-22 
   15800 4.0798577e-22 
   15900 2.6690698e-21 
   16000 1.1616488e-18 
   16100 3.7384813e-25 
   16200 4.3077879e-25 
   16300 4.9820695e-25 
   16400 5.7845315e-25 
   16500 6.7444637e-25 
 