3000 atoms
1 atom types

0.0 80 xlo xhi
0.0 80 ylo yhi
8.0 9.0  zlo zhi

Masses
1 107.8682 # Ag


